LAMMPS (29 Oct 2020)
# units           real
# dimension       3
# processors      * * *
# boundary        p p p

# # read data
# atom_style      charge
# read_data       NS.dat

# # potential
# include		pot.mod

# # outputs
# thermo          1


group 	Si type 1
ERROR: Group command before simulation box is defined (../group.cpp:98)
Last command: group 	Si type 1
